0 	4024.77
1e-05 	10526.3
2e-05 	13312.7
3e-05 	17956.7
4e-05 	17647.1
5e-05 	17647.1
6e-05 	6191.95
7e-05 	6501.55
8e-05 	3095.98
9e-05 	3095.98
0.0001 	1857.59
0.00011 	309.598
