-120 	0.000613497
-110 	0
-100 	0.00122699
-90 	0.00276074
-80 	0.00429448
-70 	0.0119632
-60 	0.00889571
-50 	0.0153374
-40 	0.0159509
-30 	0.0205521
-20 	0.0177914
-10 	0.00184049
