0 	0.000303951
10 	0.00607903
20 	0.0173252
30 	0.0148936
40 	0.0121581
50 	0.0118541
60 	0.00790274
70 	0.00699088
80 	0.00942249
90 	0.00759878
100 	0.00395137
110 	0.00151976
120 	0
130 	0.000303951
