0 	143184
1e-05 	10891.4
2e-05 	4509.19
3e-05 	2983
4e-05 	2636.14
5e-05 	2219.91
6e-05 	1803.68
7e-05 	1526.19
8e-05 	1040.58
9e-05 	485.605
0.0001 	138.744
0.00011 	138.744
0.00012 	69.3722
