-100 	0.000121408
-90 	0.000283286
-80 	0.000768919
-70 	0.001983
-60 	0.00287333
-50 	0.00376366
-40 	0.00396601
-30 	0.00975314
-20 	0.00971267
-10 	0.0214083
0 	0.0440712
10 	0.00129502
20 	0.000121408
