-30 	4.04776e-05
-20 	0.000121433
-10 	0.0128314
0 	0.0443635
10 	0.0041692
20 	0.00902651
30 	0.0119814
40 	0.00538353
50 	0.002712
60 	0.00242866
70 	0.00214531
80 	0.00299535
90 	0.00117385
100 	0.000526209
110 	0.000242866
