0 	145305
1e-05 	9273.08
2e-05 	3536.35
3e-05 	3536.35
4e-05 	2278.98
5e-05 	2750.49
6e-05 	1964.64
7e-05 	1335.95
8e-05 	1257.37
9e-05 	1021.61
0.0001 	314.342
0.00011 	157.171
