-110 	4.55166e-05
-100 	0.00013655
-90 	0.000500683
-80 	0.00172963
-70 	0.0032772
-60 	0.00364133
-50 	0.00414201
-40 	0.00714611
-30 	0.013655
-20 	0.00623578
-10 	0.0162039
0 	0.0421029
10 	0.0010924
20 	9.10332e-05
30 	4.55166e-05
