-40 	9.10539e-05
-30 	0.000182108
-20 	0.000500797
-10 	0.0131118
0 	0.0412019
10 	0.00341452
20 	0.00682905
30 	0.0128386
40 	0.00714774
50 	0.0035511
60 	0.00241293
70 	0.00273162
80 	0.00223082
90 	0.00232188
100 	0.000956066
110 	0.000500797
120 	4.5527e-05
