0 	149477
1e-05 	9743.77
2e-05 	2670.52
3e-05 	2598.34
4e-05 	2670.52
5e-05 	2165.28
6e-05 	1876.58
7e-05 	1515.7
8e-05 	1226.99
9e-05 	433.057
0.0001 	288.704
0.00011 	144.352
