-80 	0.000248088
-70 	0.000744263
-60 	0.00243953
-50 	0.00380401
-40 	0.00330784
-30 	0.00814554
-20 	0.0120323
-10 	0.0221211
0 	0.0460203
10 	0.000951003
20 	0.000289436
30 	4.13479e-05
