-30 	4.13309e-05
-20 	0.000206654
-10 	0.0124406
0 	0.0458359
10 	0.00338913
20 	0.0102501
30 	0.0127299
40 	0.00557967
50 	0.00293449
60 	0.0038851
70 	0.00210787
80 	0.000537301
90 	0.000165323
