0 	129493
1e-05 	11200
2e-05 	5226.67
3e-05 	4373.33
4e-05 	2880
5e-05 	3093.33
6e-05 	2560
7e-05 	2346.67
8e-05 	1066.67
9e-05 	1280
0.0001 	853.333
0.00011 	213.333
0.00012 	320
