-140 	0.000129744
-130 	0
-120 	0.000129744
-110 	0.000389231
-100 	0.000843334
-90 	0.00175154
-80 	0.00350308
-70 	0.00434642
-60 	0.00473565
-50 	0.0066818
-40 	0.0115472
-30 	0.0152449
-20 	0.00642232
-10 	0.0131041
0 	0.0297762
10 	0.00123257
20 	0.000454103
