-40 	0.000194363
-30 	0.000323939
-20 	0.000777454
-10 	0.0113379
0 	0.0285714
10 	0.00421121
20 	0.00803369
30 	0.0127632
40 	0.0102365
50 	0.00602527
60 	0.00291545
70 	0.00278588
80 	0.00375769
90 	0.00239715
100 	0.00285066
110 	0.00155491
120 	0.00103661
130 	0.000259151
140 	0.000129576
