0 	135480
1e-05 	8515.28
2e-05 	5786.03
3e-05 	2947.6
4e-05 	3056.77
5e-05 	2729.26
6e-05 	3165.94
7e-05 	2510.92
8e-05 	1965.07
9e-05 	655.022
0.0001 	436.681
0.00011 	436.681
0.00012 	109.17
