-130 	0.000130251
-120 	0.000325627
-110 	0.000455878
-100 	0.000586128
-90 	0.00130251
-80 	0.00390752
-70 	0.00390752
-60 	0.00481928
-50 	0.00507978
-40 	0.0121133
-30 	0.0124389
-20 	0.00573103
-10 	0.020254
0 	0.0266363
10 	0.00156301
20 	0.000455878
30 	0.000325627
40 	6.51254e-05
