0 	145063
1e-05 	10412.9
2e-05 	4093.36
3e-05 	4236.98
4e-05 	1938.96
5e-05 	1436.27
6e-05 	1149.01
7e-05 	1867.15
8e-05 	933.573
9e-05 	933.573
0.0001 	359.066
0.00011 	215.44
