-110 	0.000124896
-100 	0.000166528
-90 	0.000333056
-80 	0.0010408
-70 	0.00212323
-60 	0.00295587
-50 	0.00358035
-40 	0.00591174
-30 	0.0118651
-20 	0.00840966
-10 	0.020025
0 	0.0426728
10 	0.000832639
20 	0
30 	4.1632e-05
