-40 	4.1658e-05
-30 	0.000166632
-20 	0.000333264
-10 	0.0129973
0 	0.0434076
10 	0.00387419
20 	0.00741512
30 	0.0119558
40 	0.00712352
50 	0.00283274
60 	0.00349927
70 	0.00295772
80 	0.00166632
90 	0.00120808
100 	0.00041658
110 	0.000249948
