0 	117360
1e-05 	17811.9
2e-05 	7775.77
3e-05 	3526.22
4e-05 	2983.73
5e-05 	1989.15
6e-05 	2712.48
7e-05 	2079.57
8e-05 	2169.98
9e-05 	542.495
