-10 	0.00643447
0 	0.0578512
10 	0
20 	0
30 	0
40 	0.000649351
50 	0.00283353
60 	0.00731995
70 	0.00578512
80 	0.0040732
90 	0.00306966
100 	0.0027745
110 	0.00295159
120 	0.00230224
130 	0.00188902
140 	0.00265643
150 	0.00206612
160 	0.00112161
