-80 	7.40192e-05
-70 	0.000370096
-60 	0.0019245
-50 	0.00518135
-40 	0.00888231
-30 	0.0187269
-20 	0.0133235
-10 	0.0214656
0 	0.0601776
