-10 	0.0113083
0 	0.0541955
10 	0.00120301
20 	0.0152782
30 	0.00920301
40 	0.00631579
50 	0.00433083
60 	0.00294737
70 	0.000781955
80 	0.000180451
