0 	106987
1e-05 	11790.4
2e-05 	11790.4
3e-05 	7969.43
4e-05 	4803.49
5e-05 	3056.77
6e-05 	2510.92
7e-05 	2292.58
8e-05 	1091.7
9e-05 	982.533
0.0001 	436.681
