-10 	0.00317575
0 	0.0673403
10 	0
20 	0
30 	0
40 	0.000360881
50 	0.00173223
60 	0.00295922
70 	0.00353663
80 	0.00339228
90 	0.00267052
100 	0.00209311
110 	0.00194875
120 	0.00238181
130 	0.00187658
140 	0.0018044
150 	0.00158787
160 	0.00122699
170 	0.00202093
180 	0.00144352
190 	7.21761e-05
