-90 	0.000197336
-80 	0.000296004
-70 	0.00049334
-60 	0.00305871
-50 	0.00582141
-40 	0.0105575
-30 	0.0167736
-20 	0.00532807
-10 	0.0187469
0 	0.0776517
