-10 	0.00760709
0 	0.0645495
10 	0.000590842
20 	0.00590842
30 	0.00782866
40 	0.00568685
50 	0.00516987
60 	0.00302806
70 	0.00251108
80 	0.000738552
90 	0.000369276
