0 	140958
1e-05 	8450.7
2e-05 	4394.37
3e-05 	3492.96
4e-05 	3380.28
5e-05 	2591.55
6e-05 	1802.82
7e-05 	1577.46
8e-05 	1239.44
9e-05 	1239.44
0.0001 	901.408
0.00011 	338.028
0.00012 	225.352
