-140 	0.000264638
-130 	0.000198478
-120 	0.000330797
-110 	0.000727754
-100 	0.00145551
-90 	0.0027787
-80 	0.00344029
-70 	0.0048958
-60 	0.00509428
-50 	0.00641747
-40 	0.0148197
-30 	0.0189216
-20 	0.0102547
-10 	0.0102547
0 	0.0157459
10 	0.00383725
20 	0.000661594
30 	6.61594e-05
