-10 	0.000161681
0 	0.0995958
10 	0
20 	0
30 	0
40 	0.000646726
