-10 	0.00016129
0 	0.0993548
10 	0.000483871
20 	0.00016129
