0 	111308
1e-05 	10317.9
2e-05 	11360.1
3e-05 	7399.69
4e-05 	4273.06
5e-05 	3543.51
6e-05 	2709.74
7e-05 	2605.52
8e-05 	1042.21
9e-05 	625.326
0.0001 	416.884
0.00011 	104.221
