-10 	0.00743056
0 	0.0648611
10 	0
20 	0
30 	6.94444e-05
40 	0.000277778
50 	0.000972222
60 	0.00375
70 	0.00479167
80 	0.00347222
90 	0.00326389
100 	0.00256944
110 	0.00298611
120 	0.00159722
130 	0.00215278
140 	0.00215278
150 	0.00194444
160 	0.00104167
170 	0.000347222
180 	6.94444e-05
