-80 	0.000182149
-70 	9.10747e-05
-60 	0.00173042
-50 	0.00728597
-40 	0.0116576
-30 	0.0169399
-20 	0.00336976
-10 	0.0228597
0 	0.071949
