-10 	0.0101337
0 	0.0631246
10 	7.0373e-05
20 	0.00865588
30 	0.00760028
40 	0.00654469
50 	0.0044335
60 	0.00358902
70 	0.000844476
80 	0.000140746
