0 	144407
1e-05 	8347.25
2e-05 	4424.04
3e-05 	4006.68
4e-05 	2504.17
5e-05 	2170.28
6e-05 	2253.76
7e-05 	2170.28
8e-05 	918.197
9e-05 	584.307
0.0001 	333.89
0.00011 	166.945
