-140 	4.85437e-05
-130 	0.000194175
-120 	0.000145631
-110 	0.000485437
-100 	0.00092233
-90 	0.00213592
-80 	0.00257282
-70 	0.00446602
-60 	0.00349515
-50 	0.00514563
-40 	0.01
-30 	0.0133495
-20 	0.00393204
-10 	0.0184951
0 	0.032767
10 	0.00169903
20 	0.000339806
