0 	102464
1e-05 	8550.72
2e-05 	10000
3e-05 	9420.29
4e-05 	6521.74
5e-05 	5072.46
6e-05 	2898.55
7e-05 	2463.77
8e-05 	2463.77
9e-05 	1159.42
0.0001 	434.783
