-10 	9.68992e-05
0 	0.0684109
10 	0
20 	0
30 	9.68992e-05
40 	0
50 	0.00106589
60 	0.00135659
70 	0.00300388
80 	0.00319767
90 	0.00397287
100 	0.00271318
110 	0.00368217
120 	0.00532946
130 	0.00591085
140 	0.00242248
