-70 	0.000141243
-60 	0.000847458
-50 	0.00437853
-40 	0.0128531
-30 	0.0173729
-20 	0.0115819
-10 	0.00536723
0 	0.0950565
