-10 	0.0003848
0 	0.0676287
10 	0.0003848
20 	0.004329
30 	0.00990861
40 	0.00856181
50 	0.00865801
60 	0.000673401
