0 	144171
1e-05 	8538.59
2e-05 	3940.89
3e-05 	3721.95
4e-05 	3393.54
5e-05 	2079.91
6e-05 	1532.57
7e-05 	1313.63
8e-05 	1204.16
9e-05 	985.222
0.0001 	328.407
0.00011 	547.345
0.00012 	218.938
0.00013 	218.938
