-150 	6.36132e-05
-140 	0
-130 	0.000127226
-120 	0.000127226
-110 	0.000127226
-100 	0.00133588
-90 	0.0019084
-80 	0.00318066
-70 	0.00368957
-60 	0.00458015
-50 	0.00680662
-40 	0.0125954
-30 	0.0118957
-20 	0.00604326
-10 	0.0206743
0 	0.0231552
10 	0.0033715
20 	0.000318066
30 	6.36132e-05
