0 	139284
1e-05 	9710.64
2e-05 	3727.32
3e-05 	3334.97
4e-05 	3727.32
5e-05 	2452.18
6e-05 	2059.83
7e-05 	2452.18
8e-05 	1177.05
9e-05 	980.873
0.0001 	686.611
0.00011 	98.0873
