-140 	5.81734e-05
-130 	0.00017452
-120 	0.00034904
-110 	0.000581734
-100 	0.000930774
-90 	0.00226876
-80 	0.00308319
-70 	0.00314136
-60 	0.00343223
-50 	0.00674811
-40 	0.0112275
-30 	0.016114
-20 	0.00744619
-10 	0.0150087
0 	0.028854
10 	0.00122164
