0 	148079
1e-05 	8329.96
2e-05 	3801.05
3e-05 	3396.68
4e-05 	2264.46
5e-05 	1860.09
6e-05 	1940.96
7e-05 	1940.96
8e-05 	1213.1
9e-05 	808.734
0.0001 	808.734
