-110 	0.000185658
-100 	0.000232072
-90 	0.000556974
-80 	0.00194941
-70 	0.00218148
-60 	0.00389882
-50 	0.00524484
-40 	0.00733349
-30 	0.0140636
-20 	0.00612671
-10 	0.0159666
0 	0.0414017
10 	0.000789046
20 	0.000139243
30 	4.64145e-05
