-30 	0.000278681
-20 	0.000325128
-10 	0.0134231
0 	0.0400372
10 	0.00311194
20 	0.00580585
30 	0.01268
40 	0.00896424
50 	0.00376219
60 	0.00269392
70 	0.00320483
80 	0.00199721
90 	0.00199721
100 	0.00120762
110 	0.000185787
120 	0.000325128
130 	9.28936e-05
140 	9.28936e-05
