0 	165973
1e-05 	5875.15
2e-05 	9302.33
3e-05 	3671.97
