-10 	0.000133245
0 	0.0902065
10 	0
20 	0
30 	0
40 	0.000399734
50 	0.00226516
60 	0.00226516
70 	0.00426382
80 	0.00106596
