-20 	0.015212
-10 	0.0117207
0 	0.161347
