-10 	0.000133511
0 	0.0903872
10 	0.000801068
20 	0.00801068
30 	0.00146862
