0 	144292
1e-05 	10859.1
2e-05 	3346.97
3e-05 	3049.46
4e-05 	2380.07
5e-05 	1785.05
6e-05 	2156.94
7e-05 	1487.54
8e-05 	1487.54
9e-05 	446.263
0.0001 	818.148
0.00011 	0
0.00012 	74.3771
