-110 	4.32152e-05
-100 	0.000172861
-90 	0.000475367
-80 	0.000907519
-70 	0.00250648
-60 	0.00280899
-50 	0.00449438
-40 	0.00665514
-30 	0.0131374
-20 	0.00821089
-10 	0.0178047
0 	0.0420052
10 	0.000777874
20 	4.32152e-05
