-20 	0.000259684
-10 	0.0139797
0 	0.0410734
10 	0.00294309
20 	0.00792036
30 	0.0121186
40 	0.00757412
50 	0.00419823
60 	0.00285652
70 	0.0026834
80 	0.00199091
90 	0.00173123
100 	0.000562649
110 	0.000173123
120 	0.000129842
