0 	127485
1e-05 	15705.9
2e-05 	4678.36
3e-05 	3592.31
4e-05 	3174.6
5e-05 	2840.43
6e-05 	2255.64
7e-05 	2088.55
8e-05 	1086.05
9e-05 	584.795
0.0001 	167.084
0.00011 	167.084
