-80 	5.10204e-05
-70 	0.000459184
-60 	0.00193878
-50 	0.00377551
-40 	0.00556122
-30 	0.00790816
-20 	0.0133673
-10 	0.0212755
0 	0.0456633
10 	5.10204e-05
