-10 	0.0130506
0 	0.0516585
10 	0.00304513
20 	0.0158782
30 	0.00853725
40 	0.00451332
50 	0.00440457
60 	0.00386079
70 	0.00146819
80 	0.00021751
