0 	143430
1e-05 	9086.86
2e-05 	4632.52
3e-05 	3385.3
4e-05 	2850.78
5e-05 	1870.82
6e-05 	2405.35
7e-05 	1247.22
8e-05 	1158.13
9e-05 	801.782
0.0001 	534.521
0.00011 	267.261
0.00012 	89.0869
