-140 	0.000103842
-130 	0.000103842
-120 	0.000311526
-110 	0.000259605
-100 	0.00119418
-90 	0.00202492
-80 	0.0029595
-70 	0.00285566
-60 	0.00519211
-50 	0.00508827
-40 	0.0100208
-30 	0.0134476
-20 	0.00498442
-10 	0.017757
0 	0.0317238
10 	0.00160955
20 	0.000363448
30 	0.000103842
