0 	141551
1e-05 	10445.5
2e-05 	3917.05
3e-05 	3763.44
4e-05 	2150.54
5e-05 	3456.22
6e-05 	2150.54
7e-05 	1843.32
8e-05 	1305.68
9e-05 	384.025
