-80 	0.000179978
-70 	0.000404949
-60 	0.00107987
-50 	0.00404949
-40 	0.00508436
-30 	0.00593926
-20 	0.0106187
-10 	0.0256918
0 	0.0462092
10 	0.000764904
20 	0.000134983
