-20 	4.50552e-05
-10 	0.0118495
0 	0.0491552
10 	0.00382969
20 	0.0121649
30 	0.0106781
40 	0.00450552
50 	0.00306375
60 	0.00319892
70 	0.00126155
80 	0.000540662
