0 	111503
1e-05 	7058.82
2e-05 	9934.64
3e-05 	7843.14
4e-05 	6666.67
5e-05 	4183.01
6e-05 	2875.82
7e-05 	2745.1
8e-05 	1830.07
9e-05 	1045.75
0.0001 	0
0.00011 	130.719
