-90 	0.000121655
-80 	0.000486618
-70 	0.000608273
-60 	0.00316302
-50 	0.00851582
-40 	0.00742092
-30 	0.0111922
-20 	0.00961071
-10 	0.0139903
0 	0.0899027
