-10 	0.00402397
0 	0.0689212
10 	0.000171233
20 	0.00342466
30 	0.00693493
40 	0.00565068
50 	0.00496575
60 	0.00556507
70 	0.00188356
80 	0.000428082
90 	8.56164e-05
