0 	150520
1e-05 	7513.99
2e-05 	3517.19
3e-05 	2957.63
4e-05 	2318.15
5e-05 	2078.34
6e-05 	1678.66
7e-05 	1838.53
8e-05 	1039.17
9e-05 	719.424
0.0001 	559.552
0.00011 	479.616
0.00012 	79.9361
