-120 	0.000136955
-110 	0.000228258
-100 	0.000684775
-90 	0.0013239
-80 	0.00228258
-70 	0.00292171
-60 	0.00374344
-50 	0.00497603
-40 	0.008126
-30 	0.0134672
-20 	0.00611732
-10 	0.0169368
0 	0.037617
10 	0.00114129
20 	0.000319562
30 	9.13034e-05
