-40 	0.000274223
-30 	0.000137112
-20 	0.0011883
-10 	0.0122943
0 	0.0400366
10 	0.00306216
20 	0.0047989
30 	0.0112888
40 	0.0102377
50 	0.00411335
60 	0.00297075
70 	0.0023309
80 	0.00223949
90 	0.00201097
100 	0.00205667
110 	0.000639854
120 	0.000365631
130 	0.000182815
