0 	147969
1e-05 	6647.52
2e-05 	4267.54
3e-05 	4431.68
4e-05 	2462.04
5e-05 	2790.32
6e-05 	1313.09
7e-05 	1641.36
8e-05 	1231.02
9e-05 	902.749
0.0001 	656.545
