-150 	4.71143e-05
-140 	0
-130 	4.71143e-05
-120 	0.000518257
-110 	0.000471143
-100 	0.000942285
-90 	0.00150766
-80 	0.00240283
-70 	0.003298
-60 	0.00348645
-50 	0.004947
-40 	0.0126266
-30 	0.0122026
-20 	0.00353357
-10 	0.0156419
0 	0.0360895
10 	0.00188457
20 	0.0003298
30 	9.42285e-05
