0 	105439
1e-05 	17692.8
2e-05 	5857.74
3e-05 	6694.56
4e-05 	3705.92
5e-05 	4064.55
6e-05 	2869.1
7e-05 	1793.19
8e-05 	2390.91
9e-05 	1315
0.0001 	836.82
0.00011 	0
0.00012 	119.546
