-150 	0.000157048
-140 	0.000471143
-130 	0.000157048
-120 	0.00062819
-110 	0.001649
-100 	0.00204162
-90 	0.00243424
-80 	0.00337652
-70 	0.00392619
-60 	0.00502552
-50 	0.00887318
-40 	0.0252061
-30 	0.0266981
-20 	0.0154692
-10 	0.0029839
0 	0.000706714
10 	0.000549666
