0 	60432.8
1e-05 	28129.8
2e-05 	14064.9
3e-05 	8037.09
4e-05 	5100.46
5e-05 	3863.99
6e-05 	3245.75
7e-05 	2318.39
8e-05 	2009.27
9e-05 	2318.39
0.0001 	1391.04
