-150 	0.000118624
-140 	0.000237248
-130 	0.000711744
-120 	0.000711744
-110 	0.00260973
-100 	0.00213523
-90 	0.00438909
-80 	0.00403321
-70 	0.00581257
-60 	0.00711744
-50 	0.0111507
-40 	0.0221827
-30 	0.0211151
-20 	0.0124555
-10 	0.00486358
0 	0.000830368
